{
  "slug": "cooling-tower-approach-range-sizing",
  "title": "Cooling Tower Approach & Range Sizing Calculator",
  "seo": {
    "title": "Cooling Tower Approach & Range Sizing Calculator | HVAC & Process",
    "description": "Calculate cooling tower approach, range, heat load, evaporation rate, and required cooling tower tons based on water temperatures and flow rate. Essential for HVAC and industrial process design."
  },
  "inputs": [
    {
      "id": "hwt",
      "label": "Hot Water Temperature (Inlet)",
      "type": "number",
      "placeholder": "95",
      "required": true,
      "step": 0.1
    },
    {
      "id": "cwt",
      "label": "Cold Water Temperature (Outlet)",
      "type": "number",
      "placeholder": "85",
      "required": true,
      "step": 0.1
    },
    {
      "id": "wbt",
      "label": "Ambient Wet-Bulb Temperature",
      "type": "number",
      "placeholder": "75",
      "required": true,
      "step": 0.1
    },
    {
      "id": "gpm",
      "label": "Water Flow Rate",
      "type": "number",
      "placeholder": "1000",
      "required": true,
      "step": 1
    }
  ],
  "outputs": [
    {
      "id": "approach",
      "label": "Cooling Tower Approach",
      "unit": "°F",
      "precision": 2
    },
    {
      "id": "range",
      "label": "Cooling Tower Range",
      "unit": "°F",
      "precision": 2
    },
    {
      "id": "heat_load",
      "label": "Rejected Heat Load",
      "unit": "BTU/hr",
      "precision": 0
    },
    {
      "id": "evaporation_rate",
      "label": "Evaporation Rate",
      "unit": "GPM",
      "precision": 2
    },
    {
      "id": "cooling_tower_tons",
      "label": "Cooling Tower Tons (Refrigeration)",
      "unit": "Tons",
      "precision": 1
    }
  ],
  "formula": "const { hwt, cwt, wbt, gpm } = inputs; \n\nif (hwt === null || cwt === null || wbt === null || gpm === null || isNaN(hwt) || isNaN(cwt) || isNaN(wbt) || isNaN(gpm)) {\n    return { error: 'Please fill in all input fields with valid numbers.' };\n}\n\nif (wbt < -50 || wbt > 120) return { error: 'Wet-bulb temperature (WBT) must be between -50°F and 120°F.' };\nif (cwt < wbt) return { error: 'Cold water temperature (CWT) cannot be less than the ambient wet-bulb temperature (WBT). Check your inputs.' };\nif (hwt < cwt) return { error: 'Hot water temperature (HWT) cannot be less than the cold water temperature (CWT). Check your inputs.' };\nif (gpm <= 0) return { error: 'Water flow rate (GPM) must be a positive value.' };\n\n// Calculations\nconst approach = cwt - wbt;\nconst range = hwt - cwt;\n\n// Heat Load (BTU/hr) = GPM * 500 * Range (500 is approx. factor for water: 8.33 lb/gal * 60 min/hr * 1 BTU/lb°F)\nconst heat_load = gpm * 500 * range;\n\n// Evaporation Rate (GPM) based on latent heat of vaporization\n// Formula: Heat Load (BTU/hr) / (Latent Heat of Vaporization * Density of Water * 60 min/hr)\n// Assuming Latent Heat of Vaporization = 1050 BTU/lb, Density of Water = 8.33 lb/gal\n// Constant denominator = 1050 * 8.33 * 60 = 524790\nconst evaporation_rate = heat_load / 524790;\n\n// Cooling Tower Tons (Refrigeration Tons, 1 TR = 12,000 BTU/hr)\nconst cooling_tower_tons = heat_load / 12000;\n\nreturn {\n  approach,\n  range,\n  heat_load,\n  evaporation_rate,\n  cooling_tower_tons\n};\n",
  "summary": "This calculator determines critical cooling tower performance parameters: approach, range, heat load, water evaporation rate, and required cooling tower tons. Ideal for HVAC engineers, facility managers, and process designers to assess and size cooling tower operations.",
  "cta": "Calculate Cooling Tower Performance",
  "faq": [
    {
      "q": "What is cooling tower approach?",
      "a": "Cooling tower approach is the difference between the cold water temperature leaving the tower and the ambient wet-bulb temperature. It's a key indicator of tower efficiency; a smaller approach generally signifies better performance but requires a larger, more expensive tower."
    },
    {
      "q": "What is cooling tower range?",
      "a": "Cooling tower range is the difference between the hot water temperature entering the tower and the cold water temperature leaving it. It represents the temperature drop of the water as it passes through the tower, indicating the amount of heat rejected from the water stream."
    },
    {
      "q": "Why is wet-bulb temperature crucial for cooling tower calculations?",
      "a": "The wet-bulb temperature is the lowest temperature to which air can be cooled by evaporating water. It represents the theoretical minimum achievable cold water temperature from a cooling tower, making it the fundamental thermodynamic limit for tower performance and efficiency calculations."
    },
    {
      "q": "What is considered a good approach for a cooling tower?",
      "a": "A good approach typically ranges from 5°F to 10°F (2.8°C to 5.6°C). Modern, efficient cooling towers can achieve lower approaches (e.g., 5-7°F), while older or less efficient designs might have approaches of 10-15°F. The optimal approach depends on economic factors, climate, and desired efficiency."
    },
    {
      "q": "Can the cooling tower approach ever be negative?",
      "a": "No, the cooling tower approach (Cold Water Temperature - Wet-Bulb Temperature) cannot be negative. The wet-bulb temperature is the theoretical lowest temperature water can reach through evaporative cooling. If your calculation yields a negative approach, it indicates an error in measurement or an impossible operating condition."
    },
    {
      "q": "How does the evaporation rate relate to the heat rejected by the tower?",
      "a": "The majority of heat rejected by an evaporative cooling tower occurs through the latent heat of vaporization as water evaporates. For every pound of water evaporated, approximately 1000-1050 BTU of heat is removed from the circulating water. Therefore, a higher heat load directly corresponds to a higher evaporation rate."
    },
    {
      "q": "What is the difference between a 'ton of refrigeration' and a 'cooling tower ton'?",
      "a": "A 'ton of refrigeration' (TR) is a unit of cooling capacity equal to 12,000 BTU/hr. A 'cooling tower ton' is often used as a nominal rating for cooling tower capacity and is typically defined as rejecting 15,000 BTU/hr. This higher value accounts for additional heat sources, such as fan motor heat and pump heat, not just the refrigeration load itself."
    }
  ],
  "tags": [
    "HVAC",
    "Cooling Tower",
    "Approach",
    "Range",
    "Heat Rejection",
    "Evaporation",
    "Wet-Bulb",
    "Engineering",
    "Facility Management"
  ],
  "related": [
    "duct-friction-loss-calculator",
    "air-conditioning-tonnage-calculator",
    "pump-head-calculator"
  ],
  "article": [
    {
      "heading": "Why use this Cooling tower approach/range sizing?",
      "body": "Cooling towers are vital components in many HVAC systems and industrial processes, playing a critical role in rejecting waste heat to the atmosphere. Understanding and precisely calculating key performance parameters like approach and range is not merely an academic exercise; it's fundamental to optimizing energy efficiency, ensuring system reliability, and making informed design and operational decisions. This Cooling Tower Approach & Range Sizing Calculator provides a straightforward way to determine these crucial metrics, along with the total heat rejected, water evaporation rate, and the equivalent cooling tower tonnage.\n\nFor HVAC engineers, this tool is indispensable during the design phase to accurately size cooling towers for chillers or other heat rejection equipment. Proper sizing prevents both undersizing (leading to inadequate cooling and higher energy consumption) and oversizing (resulting in unnecessary capital cost and potentially inefficient partial load operation). Facility managers can use it to monitor the performance of existing cooling towers, quickly identifying deviations from design conditions that might indicate fouling, poor water distribution, or inadequate airflow – all of which impact efficiency and increase operating costs. Early detection of such issues allows for timely maintenance and avoids costly breakdowns.\n\nIndustrial process engineers also benefit significantly. Many manufacturing processes generate substantial heat that must be dissipated to maintain optimal operating temperatures for equipment and products. This calculator assists in designing cooling systems that meet specific process requirements, ensuring consistent production quality and preventing thermal damage to sensitive machinery. By providing instant calculations for heat load and evaporation, it also aids in water management strategies, helping to estimate makeup water requirements and understand blowdown needs, which are critical for water conservation and chemical treatment programs. Ultimately, this tool empowers professionals to make data-driven decisions that contribute to sustainable, cost-effective, and reliable cooling operations."
    },
    {
      "heading": "How the calculation works",
      "body": "The calculations performed by this tool are based on fundamental thermodynamic principles and industry-standard formulas for cooling tower operation. Let's break down each step:\n\n**1. Cooling Tower Approach:**\n   *Formula: `Approach (°F) = Cold Water Temperature (CWT) - Ambient Wet-Bulb Temperature (WBT)`*\n   The approach is the difference between the temperature of the water leaving the cooling tower (cold water) and the wet-bulb temperature of the ambient air. The wet-bulb temperature is the theoretical lowest temperature that water can achieve through evaporative cooling. A smaller approach indicates a more efficient cooling tower, as it is bringing the water temperature closer to the thermodynamic limit. However, achieving a lower approach generally requires a larger and more expensive tower.\n\n**2. Cooling Tower Range:**\n   *Formula: `Range (°F) = Hot Water Temperature (HWT) - Cold Water Temperature (CWT)`*\n   The range represents the temperature drop of the water as it passes through the cooling tower. It's the difference between the hot water entering the tower and the cold water leaving it. This value directly indicates the amount of heat removed from the circulating water stream. A higher range means more heat is being rejected per unit of water flow.\n\n**3. Rejected Heat Load:**\n   *Formula: `Heat Load (BTU/hr) = Water Flow Rate (GPM) × 500 × Range (°F)`*\n   This formula calculates the total heat rejected by the cooling tower in British Thermal Units per hour (BTU/hr). The constant '500' is an approximate factor derived from the properties of water: it accounts for water's density (approximately 8.33 lbs/gallon), its specific heat (1 BTU/lb·°F), and the conversion from minutes to hours (60 minutes/hour). Specifically, `8.33 lbs/gal × 60 min/hr × 1 BTU/lb·°F ≈ 500 BTU·min/(gal·hr·°F)`. Multiplying GPM by this factor and the range gives the total heat load.\n\n**4. Evaporation Rate:**\n   *Formula: `Evaporation Rate (GPM) = Heat Load (BTU/hr) / (1050 BTU/lb × 8.33 lbs/gal × 60 min/hr)`*\n   *Simplified: `Evaporation Rate (GPM) = Heat Load (BTU/hr) / 524790`*\n   Evaporation is the primary mechanism for heat rejection in a cooling tower. This calculation determines the amount of water lost to the atmosphere through evaporation, expressed in gallons per minute (GPM). It's based on the latent heat of vaporization of water, which is approximately 1050 BTU per pound of water evaporated. The denominator converts this to a GPM basis, considering water's density. This rate is crucial for determining makeup water requirements and managing water balance in the system.\n\n**5. Cooling Tower Tons (Refrigeration):**\n   *Formula: `Cooling Tower Tons = Heat Load (BTU/hr) / 12,000 BTU/hr/Ton`*\n   This output converts the calculated heat load into standard tons of refrigeration. One ton of refrigeration is defined as the removal of heat at a rate of 12,000 BTU per hour. This is a common unit for sizing and rating refrigeration equipment and is widely used in the HVAC industry to specify the cooling capacity required from the tower."
    },
    {
      "heading": "Common mistakes in Cooling tower approach/range sizing",
      "body": "Accurate cooling tower sizing and performance evaluation are critical, but several common mistakes can lead to inefficiencies, higher operating costs, or even system failure. Awareness of these pitfalls is key to successful cooling tower management.\n\n**1. Confusing Dry-Bulb with Wet-Bulb Temperature:** This is perhaps the most fundamental error. Cooling tower performance is governed by the ambient wet-bulb temperature, not the dry-bulb temperature. The wet-bulb temperature accounts for the evaporative cooling potential of the air, which is the primary mechanism of heat rejection in a cooling tower. Using dry-bulb temperature will lead to drastically inaccurate approach calculations and an undersized or improperly operating tower.\n\n**2. Incorrectly Estimating Design Wet-Bulb Temperature:** Even when using wet-bulb temperature, selecting an inappropriate design wet-bulb can be problematic. Using the absolute maximum wet-bulb temperature for a location might lead to an oversized and expensive tower, while using an average can result in insufficient cooling on hotter days. Engineers typically select a design wet-bulb that is exceeded only a small percentage of the operating hours (e.g., the 0.4% or 1% design wet-bulb for a specific location), balancing capital cost with peak performance reliability.\n\n**3. Ignoring the Impact of Approach on Efficiency:** A high approach means the cold water is significantly warmer than the wet-bulb temperature, indicating lower tower efficiency. While a larger approach might save on initial tower cost, it translates to higher chiller energy consumption or less effective process cooling. Conversely, striving for an excessively low approach might lead to an economically unjustified increase in tower size and cost. The optimal approach is a balance between performance, capital, and operating costs.\n\n**4. Overlooking Water Flow Rate Variations:** Cooling tower calculations assume a specific water flow rate. If the actual flow rate deviates significantly due to pump issues, valve settings, or system changes, the actual approach and range will be affected, and the tower's performance will not match its design. This can lead to either wasted energy or insufficient cooling.\n\n**5. Neglecting Water Treatment and Maintenance:** While not a direct sizing mistake, inadequate water treatment and maintenance directly impact tower performance over time. Scaling, fouling, biological growth, and corrosion can significantly reduce heat transfer efficiency, effectively increasing the approach and decreasing the range. A properly sized tower will underperform if not maintained, leading to higher energy use and a shorter lifespan.\n\n**6. Misinterpreting 'Tons' of Cooling:** There's a common confusion between a 'ton of refrigeration' (12,000 BTU/hr) and a 'cooling tower ton' (often 15,000 BTU/hr). The higher value for a cooling tower ton typically accounts for the additional heat added by the chiller compressor motor and other parasitic loads. When sizing a cooling tower for a chiller, it's crucial to use the total heat rejection load, which is usually higher than the nominal chiller tonnage. This calculator specifically calculates refrigeration tons based on the actual heat load, offering a clear basis for comparison.\n\nBy carefully considering these points and utilizing tools like this calculator, engineers and facility managers can ensure that cooling towers operate effectively, efficiently, and reliably for their intended application."
    }
  ]
}
